[ defaults ]
; nbfunc        comb-rule       gen-pairs       fudgeLJ fudgeQQ
1               2               no             0  0  ; dm_nbfunc 4

[ atomtypes ]
; name      bond_type   mass        charge   ptype   sigma(nm)   epsilon(kJ/mol)
  opls_800  O800        15.9990     0.000    A       0.313602    0.812829
  opls_801  C801        12.0110     0.000    A       0.363751    0.479895
  opls_802  C802        15.0310     0.000    A       0.363751    0.479895
  opls_803  C803        14.0270     0.000    A       0.363751    0.479895
  opls_809  C809        15.0310     0.000    A       0.363751    0.479895

[ moleculetype ]
; Name               nrexcl
BTO                   3

[ atoms ]
;   nr       type  resnr residue  atom   cgnr     charge       mass  
     1   opls_800      1    BTO   O00      1     -0.4233    15.9990 
     2   opls_801      1    BTO   C01      1      0.2072    12.0110 
     3   opls_802      1    BTO   C02      1      0.1081    15.0310 
     4   opls_803      1    BTO   C03      1      0.0956    14.0270 
     5   opls_809      1    BTO   C09      1      0.0124    15.0310 

[ bonds ]
    2     1     1      0.1229 476976.000
    3     2     1      0.1520 265265.600
    4     2     1      0.1520 265265.600
    5     4     1      0.1540 224262.400

[ angles ]
;  ai    aj    ak funct            c0            c1
    1     2     3     1       121.400       519.3975
    1     2     4     1       121.400       519.3975
    2     4     5     1       114.000       519.3975
    3     2     4     1       117.200       519.3975

[ dihedrals ]
; PROPER DIHEDRAL ANGLES
   5    4    2    3        3       8.707  0.779  -0.248  -9.382  0.000  0.000
   5    4    2    1        3       9.322 -1.187  -0.962   9.752  0.000  0.000
