SPCE water box, 33 molecules (relaxed random)
   99
    1SOL   OW1    1   1.279   0.050   0.550
    1SOL   HW2    2   1.374   0.081   0.550
    1SOL   HW3    3   1.218   0.129   0.550
    2SOL   OW1    1   0.446   1.473   1.353
    2SOL   HW2    2   0.447   1.573   1.353
    2SOL   HW3    3   0.352   1.440   1.353
    3SOL   OW1    1   1.784   0.174   0.844
    3SOL   HW2    2   1.842   0.092   0.844
    3SOL   HW3    3   1.842   0.256   0.844
    4SOL   OW1    1   0.053   0.398   1.300
    4SOL   HW2    2   1.957   0.425   1.300
    4SOL   HW3    3   0.060   0.298   1.300
    5SOL   OW1    1   1.090   0.441   1.179
    5SOL   HW2    2   1.122   0.346   1.179
    5SOL   HW3    3   1.169   0.502   1.179
    6SOL   OW1    1   1.619   0.013   1.612
    6SOL   HW2    2   1.569   1.926   1.612
    6SOL   HW3    3   1.717   1.995   1.612
    7SOL   OW1    1   1.396   0.681   0.311
    7SOL   HW2    2   1.496   0.673   0.311
    7SOL   HW3    3   1.370   0.777   0.311
    8SOL   OW1    1   1.914   0.673   0.185
    8SOL   HW2    2   1.832   0.617   0.185
    8SOL   HW3    3   1.995   0.614   0.185
    9SOL   OW1    1   1.614   1.459   1.072
    9SOL   HW2    2   1.709   1.429   1.072
    9SOL   HW3    3   1.612   1.559   1.072
   10SOL   OW1    1   1.659   1.237   1.723
   10SOL   HW2    2   1.736   1.174   1.723
   10SOL   HW3    3   1.692   1.331   1.723
   11SOL   OW1    1   1.155   1.409   0.092
   11SOL   HW2    2   1.079   1.344   0.092
   11SOL   HW3    3   1.241   1.359   0.092
   12SOL   OW1    1   0.456   0.579   0.160
   12SOL   HW2    2   0.437   0.481   0.160
   12SOL   HW3    3   0.555   0.593   0.160
   13SOL   OW1    1   0.466   0.202   0.556
   13SOL   HW2    2   0.366   0.199   0.556
   13SOL   HW3    3   0.502   0.109   0.556
   14SOL   OW1    1   0.791   1.829   0.918
   14SOL   HW2    2   0.840   1.742   0.918
   14SOL   HW3    3   0.858   1.904   0.918
   15SOL   OW1    1   0.530   0.493   1.123
   15SOL   HW2    2   0.434   0.464   1.123
   15SOL   HW3    3   0.590   0.413   1.123
   16SOL   OW1    1   0.525   1.169   1.796
   16SOL   HW2    2   0.605   1.109   1.796
   16SOL   HW3    3   0.556   1.265   1.796
   17SOL   OW1    1   1.019   0.182   0.094
   17SOL   HW2    2   1.015   0.082   0.094
   17SOL   HW3    3   1.115   0.211   0.094
   18SOL   OW1    1   1.363   1.074   0.534
   18SOL   HW2    2   1.265   1.090   0.534
   18SOL   HW3    3   1.381   0.976   0.534
   19SOL   OW1    1   0.907   1.908   1.752
   19SOL   HW2    2   0.902   0.007   1.752
   19SOL   HW3    3   0.815   1.869   1.752
   20SOL   OW1    1   0.527   1.001   0.357
   20SOL   HW2    2   0.529   1.101   0.357
   20SOL   HW3    3   0.432   0.969   0.357
   21SOL   OW1    1   1.825   1.741   0.597
   21SOL   HW2    2   1.760   1.665   0.597
   21SOL   HW3    3   1.919   1.705   0.597
   22SOL   OW1    1   0.039   1.858   1.757
   22SOL   HW2    2   0.049   1.759   1.757
   22SOL   HW3    3   0.129   1.901   1.757
   23SOL   OW1    1   1.756   1.894   0.171
   23SOL   HW2    2   1.657   1.881   0.171
   23SOL   HW3    3   1.802   1.805   0.171
   24SOL   OW1    1   1.100   0.530   1.745
   24SOL   HW2    2   1.030   0.459   1.745
   24SOL   HW3    3   1.190   0.488   1.745
   25SOL   OW1    1   1.990   1.300   0.876
   25SOL   HW2    2   1.975   1.399   0.876
   25SOL   HW3    3   1.902   1.252   0.876
   26SOL   OW1    1   1.142   0.945   1.569
   26SOL   HW2    2   1.230   0.992   1.569
   26SOL   HW3    3   1.069   1.013   1.569
   27SOL   OW1    1   0.862   0.847   0.934
   27SOL   HW2    2   0.840   0.945   0.934
   27SOL   HW3    3   0.778   0.794   0.934
   28SOL   OW1    1   0.197   0.805   0.679
   28SOL   HW2    2   0.183   0.904   0.679
   28SOL   HW3    3   0.108   0.759   0.679
   29SOL   OW1    1   0.315   1.922   0.160
   29SOL   HW2    2   0.272   0.012   0.160
   29SOL   HW3    3   0.244   1.851   0.160
   30SOL   OW1    1   0.470   0.240   1.781
   30SOL   HW2    2   0.374   0.215   1.781
   30SOL   HW3    3   0.526   0.157   1.781
   31SOL   OW1    1   1.634   0.599   1.327
   31SOL   HW2    2   1.699   0.675   1.327
   31SOL   HW3    3   1.541   0.634   1.327
   32SOL   OW1    1   0.610   1.591   0.455
   32SOL   HW2    2   0.622   1.690   0.455
   32SOL   HW3    3   0.513   1.569   0.455
   33SOL   OW1    1   0.352   1.916   1.036
   33SOL   HW2    2   0.317   1.822   1.036
   33SOL   HW3    3   0.452   1.915   1.036
2.00000 2.00000 2.00000
